 CRYSTAL
 PRIMVEC
     0.0  1.8  1.8
     1.8  0.0  1.8
     1.8  1.8  0.0
 PRIMCOORD
   2 1
     6  0.0  0.0  0.0
     6  0.9  0.9  0.9
